 Entering Gaussian System, Link 0=/Applications/gaussian09/g09/g09
 Input=test_pcnsr.com
 Output=test_pcnsr.log
 Initial command:
 /Applications/gaussian09/g09/l1.exe "/Users/tristanmackenzie/Scratch/Gau-11307.inp" -scrdir="/Users/tristanmackenzie/Scratch/"
 Entering Link 1 = /Applications/gaussian09/g09/l1.exe PID=     11308.
  
 Copyright (c) 1988,1990,1992,1993,1995,1998,2003,2009,2013,
            Gaussian, Inc.  All Rights Reserved.
  
 This is part of the Gaussian(R) 09 program.  It is based on
 the Gaussian(R) 03 system (copyright 2003, Gaussian, Inc.),
 the Gaussian(R) 98 system (copyright 1998, Gaussian, Inc.),
 the Gaussian(R) 94 system (copyright 1995, Gaussian, Inc.),
 the Gaussian 92(TM) system (copyright 1992, Gaussian, Inc.),
 the Gaussian 90(TM) system (copyright 1990, Gaussian, Inc.),
 the Gaussian 88(TM) system (copyright 1988, Gaussian, Inc.),
 the Gaussian 86(TM) system (copyright 1986, Carnegie Mellon
 University), and the Gaussian 82(TM) system (copyright 1983,
 Carnegie Mellon University). Gaussian is a federally registered
 trademark of Gaussian, Inc.
  
 This software contains proprietary and confidential information,
 including trade secrets, belonging to Gaussian, Inc.
  
 This software is provided under written license and may be
 used, copied, transmitted, or stored only in accord with that
 written license.
  
 The following legend is applicable only to US Government
 contracts under FAR:
  
                    RESTRICTED RIGHTS LEGEND
  
 Use, reproduction and disclosure by the US Government is
 subject to restrictions as set forth in subparagraphs (a)
 and (c) of the Commercial Computer Software - Restricted
 Rights clause in FAR 52.227-19.
  
 Gaussian, Inc.
 340 Quinnipiac St., Bldg. 40, Wallingford CT 06492
  
  
 ---------------------------------------------------------------
 Warning -- This program may not be used in any manner that
 competes with the business of Gaussian, Inc. or will provide
 assistance to any competitor of Gaussian, Inc.  The licensee
 of this program is prohibited from giving any competitor of
 Gaussian, Inc. access to this program.  By using this program,
 the user acknowledges that Gaussian, Inc. is engaged in the
 business of creating and licensing software in the field of
 computational chemistry and represents and warrants to the
 licensee that it is not a competitor of Gaussian, Inc. and that
 it will not use this program in any manner prohibited above.
 ---------------------------------------------------------------
  

 Cite this work as:
 Gaussian 09, Revision D.01,
 M. J. Frisch, G. W. Trucks, H. B. Schlegel, G. E. Scuseria, 
 M. A. Robb, J. R. Cheeseman, G. Scalmani, V. Barone, B. Mennucci, 
 G. A. Petersson, H. Nakatsuji, M. Caricato, X. Li, H. P. Hratchian, 
 A. F. Izmaylov, J. Bloino, G. Zheng, J. L. Sonnenberg, M. Hada, 
 M. Ehara, K. Toyota, R. Fukuda, J. Hasegawa, M. Ishida, T. Nakajima, 
 Y. Honda, O. Kitao, H. Nakai, T. Vreven, J. A. Montgomery, Jr., 
 J. E. Peralta, F. Ogliaro, M. Bearpark, J. J. Heyd, E. Brothers, 
 K. N. Kudin, V. N. Staroverov, T. Keith, R. Kobayashi, J. Normand, 
 K. Raghavachari, A. Rendell, J. C. Burant, S. S. Iyengar, J. Tomasi, 
 M. Cossi, N. Rega, J. M. Millam, M. Klene, J. E. Knox, J. B. Cross, 
 V. Bakken, C. Adamo, J. Jaramillo, R. Gomperts, R. E. Stratmann, 
 O. Yazyev, A. J. Austin, R. Cammi, C. Pomelli, J. W. Ochterski, 
 R. L. Martin, K. Morokuma, V. G. Zakrzewski, G. A. Voth, 
 P. Salvador, J. J. Dannenberg, S. Dapprich, A. D. Daniels, 
 O. Farkas, J. B. Foresman, J. V. Ortiz, J. Cioslowski, 
 and D. J. Fox, Gaussian, Inc., Wallingford CT, 2013.
 
 ******************************************
 Gaussian 09:  EM64M-G09RevD.01 24-Apr-2013
                27-Apr-2019 
 ******************************************
 %nprocshared=1
 Will use up to    1 processors via shared memory.
 %mem=4000MB
 %chk=/Users/tristanmackenzie/Unity/ONIOM Flow/Assets/Resources/PDBExamples/test_
 pcnsr.chk
 ------------------------------------
 #N AMBER=softfirst geom=connectivity
 ------------------------------------
 1/38=1,56=2,57=2,64=203/1;
 2/12=2,17=6,18=5,40=1/2;
 3/5=30,11=9,16=1,25=1,30=1,41=10300000,43=2/1;
 4/20=11,24=3/2;
 99/5=1,9=1/99;
 -----
 Title
 -----
 Symbolic Z-matrix:
 Charge =  0 Multiplicity = 1
 C-C-0.5972(PDBName=C,ResName=ACE,ResNum=64) 0     11.642    68.057   -12.147   L 
 C-CT--0.3662(PDBName=CH3,ResName=ACE,ResNum=64) 0     13.1653   67.915   -12.1597  L 
 H-HC-0.1123(PDBName=1HH3,ResName=ACE,ResNum=64) 0     13.4732   67.0413  -12.7341  L 
 H-HC-0.1123(PDBName=2HH3,ResName=ACE,ResNum=64) 0     13.5951   68.8126  -12.6043  L 
 H-HC-0.1123(PDBName=3HH3,ResName=ACE,ResNum=64) 0     13.5145   67.8164  -11.1319  L 
 O-O--0.5679(PDBName=O,ResName=ACE,ResNum=64) 0     10.9347   67.243   -12.7366  L 
 C-CK--0.0208(PDBName=C,ResName=CRA,ResNum=65) 0     9.431     69.147   -9.749    L 
 C-C--0.0374(PDBName=C1,ResName=CRA,ResNum=65) 0     8.131     70.9     -9.852    L 
 C-C-0.1418(PDBName=C2,ResName=CRA,ResNum=65) 0     7.239     68.914   -12.412   L 
 C-CT-0.2493(PDBName=CA,ResName=CRA,ResNum=65) 0     10.237    67.92    -10.172   L 
 C-CC-0.0473(PDBName=CA1,ResName=CRA,ResNum=65) 0     8.729     70.767   -8.479    L 
 C-CT-0.1109(PDBName=CA2,ResName=CRA,ResNum=65) 0     8.418     69.77    -11.975   L 
 C-CT-0.0195(PDBName=CB,ResName=CRA,ResNum=65) 0     10.723    67.085   -8.984    L 
 C-CD--0.3418(PDBName=CB1,ResName=CRA,ResNum=65) 0     8.491     71.711   -7.501    L 
 C-CA-0.3841(PDBName=CD1,ResName=CRA,ResNum=65) 0     9.853     70.805   -5.669    L 
 C-CA--0.1768(PDBName=CD2,ResName=CRA,ResNum=65) 0     8.622     72.829   -5.348    L 
 C-CA-0.6097(PDBName=CE1,ResName=CRA,ResNum=65) 0     10.348    70.9     -4.352    L 
 C-CA-0.1768(PDBName=CE2,ResName=CRA,ResNum=65) 0     9.098     72.935   -4.033    L 
 C-CA--0.2288(PDBName=CG,ResName=CRA,ResNum=65) 0     8.987     71.776   -6.18     L 
 C-CA-0.4486(PDBName=CZ,ResName=CRA,ResNum=65) 0     9.954     71.973   -3.543    L 
 H-H--0.4945(PDBName=H,ResName=CRA,ResNum=65) 0     12.0081   69.1755  -10.4452  L 
 H-H1--0.5487(PDBName=HA,ResName=CRA,ResNum=65) 0     9.7521    67.2499  -10.9565  L 
 H-H1--0.6093(PDBName=HA1,ResName=CRA,ResNum=65) 0     8.418     70.7397  -12.5743  L 
 H-H1--0.5748(PDBName=HA2,ResName=CRA,ResNum=65) 0     9.3403    69.2     -12.3273  L 
 H-HA-0.0981(PDBName=HB,ResName=CRA,ResNum=65) 0     7.691     72.5205  -7.6862   L 
 H-H1--0.5283(PDBName=HB1,ResName=CRA,ResNum=65) 0     11.6453   66.515   -9.3363   L 
 H-H1--0.4326(PDBName=HB2,ResName=CRA,ResNum=65) 0     10.9082   67.885   -8.1745   L 
 H-HA-0.1848(PDBName=HD,ResName=CRA,ResNum=65) 0     7.9519    73.6135  -5.8329   L 
 H-HA-0.1188(PDBName=HD1,ResName=CRA,ResNum=65) 0     10.3379   70.1349  -6.4535   L 
 H-HA-0.0705(PDBName=HE,ResName=CRA,ResNum=65) 0     8.6131    73.6051  -3.2485   L 
 H-HA-0.3048(PDBName=HE1,ResName=CRA,ResNum=65) 0     11.0181   70.1155  -3.8671   L 
 H-HO-0.0922(PDBName=HG,ResName=CRA,ResNum=65) 0     8.9569    66.7736  -7.8303   L 
 H-HO-0.397(PDBName=HH1,ResName=CRA,ResNum=65) 0     10.379    71.2278  -1.714    L 
 N-N-0.041(PDBName=N,ResName=CRA,ResNum=65) 0     11.385    68.446   -10.896   L 
 N-NB--0.0984(PDBName=N1,ResName=CRA,ResNum=65) 0     9.543     69.559   -8.452    L 
 N-N*-0.1612(PDBName=N2,ResName=CRA,ResNum=65) 0     8.653     69.907   -10.55    L 
 O-O--0.1796(PDBName=O,ResName=CRA,ResNum=65) 0     7.326     71.733   -10.289   L 
 O-O-0.1144(PDBName=O1,ResName=CRA,ResNum=65) 0     6.736     69.089   -13.541   L 
 O-OH-0.337(PDBName=OG,ResName=CRA,ResNum=65) 0     9.652     66.344   -8.424    L 
 O-OH-0.164(PDBName=OH,ResName=CRA,ResNum=65) 0     10.379    72.087   -2.245    L 
 C-CT--0.149(PDBName=CH3,ResName=NME,ResNum=68) 0     5.7564    67.0613  -11.9269  L 
 H-H-0.2719(PDBName=H,ResName=NME,ResNum=68) 0     7.767     67.5708  -11.3969  L 
 H-H1-0.0976(PDBName=1HH3,ResName=NME,ResNum=68) 0     4.8523    67.646   -12.0964  L 
 H-H1-0.0976(PDBName=2HH3,ResName=NME,ResNum=68) 0     6.0052    66.5073  -12.8321  L 
 H-H1-0.0976(PDBName=3HH3,ResName=NME,ResNum=68) 0     5.5878    66.3616  -11.1083  L 
 N-N--0.4157(PDBName=N,ResName=NME,ResNum=68) 0     6.85      67.949   -11.587   L 
 
 I=    1 IAn=  6 Valence= 5.
          JB=  1 J=    2 IAn=  6 IBT= 1 Dist= 1.53D+00
          JB=  2 J=    6 IAn=  8 IBT= 2 Dist= 1.23D+00
          JB=  3 J=   34 IAn=  7 IBT=12 Dist= 1.34D+00
 I=    8 IAn=  6 Valence= 5.
          JB=  1 J=   11 IAn=  6 IBT= 1 Dist= 1.50D+00
          JB=  2 J=   36 IAn=  7 IBT=22 Dist= 1.32D+00
          JB=  3 J=   37 IAn=  8 IBT= 2 Dist= 1.24D+00
 I=    9 IAn=  6 Valence= 5.
          JB=  1 J=   12 IAn=  6 IBT= 1 Dist= 1.52D+00
          JB=  2 J=   38 IAn=  8 IBT= 2 Dist= 1.25D+00
          JB=  3 J=   46 IAn=  7 IBT=12 Dist= 1.33D+00
 I=   14 IAn=  6 Valence= 5.
          JB=  1 J=   11 IAn=  6 IBT= 2 Dist= 1.38D+00
          JB=  2 J=   19 IAn=  6 IBT=12 Dist= 1.41D+00
          JB=  3 J=   25 IAn=  1 IBT= 1 Dist= 1.15D+00
 I=   18 IAn=  6 Valence= 5.
          JB=  1 J=   16 IAn=  6 IBT=12 Dist= 1.40D+00
          JB=  2 J=   20 IAn=  6 IBT= 2 Dist= 1.38D+00
          JB=  3 J=   30 IAn=  1 IBT= 1 Dist= 1.14D+00
 I=   19 IAn=  6 Valence= 5.
          JB=  1 J=   14 IAn=  6 IBT=12 Dist= 1.41D+00
          JB=  2 J=   15 IAn=  6 IBT=12 Dist= 1.40D+00
          JB=  3 J=   16 IAn=  6 IBT=12 Dist= 1.39D+00
 I=   20 IAn=  6 Valence= 5.
          JB=  1 J=   17 IAn=  6 IBT=12 Dist= 1.40D+00
          JB=  2 J=   18 IAn=  6 IBT= 2 Dist= 1.38D+00
          JB=  3 J=   40 IAn=  8 IBT= 1 Dist= 1.37D+00
 I=   34 IAn=  7 Valence= 4.
          JB=  1 J=    1 IAn=  6 IBT=12 Dist= 1.34D+00
          JB=  2 J=   10 IAn=  6 IBT= 1 Dist= 1.46D+00
          JB=  3 J=   21 IAn=  1 IBT= 1 Dist= 1.06D+00
 I=   36 IAn=  7 Valence= 4.
          JB=  1 J=    7 IAn=  6 IBT=12 Dist= 1.35D+00
          JB=  2 J=    8 IAn=  6 IBT=12 Dist= 1.32D+00
          JB=  3 J=   12 IAn=  6 IBT= 1 Dist= 1.45D+00
 I=   46 IAn=  7 Valence= 4.
          JB=  1 J=    9 IAn=  6 IBT=12 Dist= 1.33D+00
          JB=  2 J=   41 IAn=  6 IBT= 1 Dist= 1.45D+00
          JB=  3 J=   42 IAn=  1 IBT= 1 Dist= 1.01D+00
 Read MM parameter file:
 Define CD         1
 Include all MM classes

 MM sanity checks:
 All charges sum to:                0.00000000
 Charges of atoms sum to:           0.00000000
 Residue   1 PDB Number    64_0 ACE has     6 atoms, and a charge of   0.00000000
 Residue   2 PDB Number    65_0 CRA has    34 atoms, and a charge of   0.00000000
 Residue   3 PDB Number    68_0 NME has     6 atoms, and a charge of   0.00000000
 WARNING -- The following centers have non-zero partial charges, but zero Vanderwaals
 parameters.  These centers can collapse onto other centers with non-zero charge.
   Center  Layer   Charge
     32 H    R    0.092200
     33 H    R    0.397000
 MMInit generated parameter data with length LenPar=       10917.
 MM Charge=              0.0000 electrons
 MM Dipole moment (Debye):
    X=             -0.7314    Y=             23.7761    Z=             82.7847  Tot=             86.1345
 MM Quadrupole moment (Debye-Ang):
   XX=            -18.9014   YY=           3322.5216   ZZ=          -1210.5262
   XY=            220.4434   XZ=            842.1779   YZ=           5645.8997
 MM Traceless Quadrupole moment (Debye-Ang):
   XX=           -716.5994   YY=           2624.8236   ZZ=          -1908.2242
   XY=            220.4434   XZ=            842.1779   YZ=           5645.8997
 MM Octapole moment (Debye-Ang**2):
  XXX=           -397.3717  YYY=         348374.1035  ZZZ=          14799.0218  XYY=          34277.8546
  XXY=           1710.7014  XXZ=           8590.6031  XZZ=         -12207.1069  YZZ=         -83456.5961
  YYZ=         385086.5942  XYZ=          57110.3119
 MM Hexadecapole moment (Debye-Ang**3):
 XXXX=          -7150.6719 YYYY=       32483484.6519 ZZZZ=        -174195.8912 XXXY=           5681.8748
 XXXZ=          88424.0816 YYYX=        3708767.8194 YYYZ=       26267456.5403 ZZZX=         148287.3783
 ZZZY=        1023062.1550 XXYY=         329478.9082 XXZZ=        -122891.6009 YYZZ=       -5756603.2309
 XXYZ=         579822.9491 YYXZ=        3872780.4577 ZZXY=        -837968.1451
 Center=      9.39344348     69.42031087     -9.07725652
 Residue   1 PDB Number    64_0 ACE charge    0.00000000 layers R        AvRTP=      4.87150176    334.23368668    130.67381224
 Residue   3 PDB Number    68_0 NME charge    0.00000000 layers R        AvRTP=      4.81279070    214.49013704    124.80896784
 Residue   2 PDB Number    65_0 CRA charge    0.00000000 layers R        AvRTP=      1.24600668     91.04873297     32.98884542
                          Input orientation:                          
 ---------------------------------------------------------------------
 Center     Atomic      Atomic             Coordinates (Angstroms)
 Number     Number       Type             X           Y           Z
 ---------------------------------------------------------------------
      1          6    20001002       11.642000   68.057000  -12.147000
      2          6    20001001       13.165300   67.915000  -12.159700
      3          1    20001034       13.473200   67.041300  -12.734100
      4          1    20001034       13.595100   68.812600  -12.604300
      5          1    20001034       13.514500   67.816400  -11.131900
      6          8    20001024       10.934700   67.243000  -12.736600
      7          6    20001012        9.431000   69.147000   -9.749000
      8          6    20001002        8.131000   70.900000   -9.852000
      9          6    20001002        7.239000   68.914000  -12.412000
     10          6    20001001       10.237000   67.920000  -10.172000
     11          6    20001005        8.729000   70.767000   -8.479000
     12          6    20001001        8.418000   69.770000  -11.975000
     13          6    20001001       10.723000   67.085000   -8.984000
     14          6    90000001        8.491000   71.711000   -7.501000
     15          6    20001003        9.853000   70.805000   -5.669000
     16          6    20001003        8.622000   72.829000   -5.348000
     17          6    20001003       10.348000   70.900000   -4.352000
     18          6    20001003        9.098000   72.935000   -4.033000
     19          6    20001003        8.987000   71.776000   -6.180000
     20          6    20001003        9.954000   71.973000   -3.543000
     21          1    20001029       12.008100   69.175500  -10.445200
     22          1    20001035        9.752100   67.249900  -10.956500
     23          1    20001035        8.418000   70.739700  -12.574300
     24          1    20001035        9.340300   69.200000  -12.327300
     25          1    20001033        7.691000   72.520500   -7.686200
     26          1    20001035       11.645300   66.515000   -9.336300
     27          1    20001035       10.908200   67.885000   -8.174500
     28          1    20001033        7.951900   73.613500   -5.832900
     29          1    20001033       10.337900   70.134900   -6.453500
     30          1    20001033        8.613100   73.605100   -3.248500
     31          1    20001033       11.018100   70.115500   -3.867100
     32          1    20001031        8.956900   66.773600   -7.830300
     33          1    20001031       10.379000   71.227800   -1.714000
     34          7    20001014       11.385000   68.446000  -10.896000
     35          7    20001016        9.543000   69.559000   -8.452000
     36          7    20001018        8.653000   69.907000  -10.550000
     37          8    20001024        7.326000   71.733000  -10.289000
     38          8    20001024        6.736000   69.089000  -13.541000
     39          8    20001022        9.652000   66.344000   -8.424000
     40          8    20001022       10.379000   72.087000   -2.245000
     41          6    20001001        5.756400   67.061300  -11.926900
     42          1    20001029        7.767000   67.570800  -11.396900
     43          1    20001035        4.852300   67.646000  -12.096400
     44          1    20001035        6.005200   66.507300  -12.832100
     45          1    20001035        5.587800   66.361600  -11.108300
     46          7    20001014        6.850000   67.949000  -11.587000
 ---------------------------------------------------------------------
                    Distance matrix (angstroms):
                    1          2          3          4          5
     1  C    0.000000
     2  C    1.529957   0.000000
     3  H    2.174770   1.089995   0.000000
     4  H    2.143514   1.089992   1.780228   0.000000
     5  H    2.143495   1.089970   1.780318   1.779571   0.000000
     6  O    1.229023   2.399995   2.546502   3.091743   3.091798
     7  C    3.439044   4.612407   5.448319   5.060068   4.511971
     8  C    5.067228   6.291254   7.192716   6.464424   6.334730
     9  C    4.493449   6.015205   6.517362   6.359817   6.498098
    10  C    2.427637   3.539197   4.220126   4.241421   3.416745
    11  C    5.411459   6.431346   7.382015   6.672084   6.216505
    12  C    3.654877   5.100196   5.794574   5.302358   5.522833
    13  C    3.434227   4.091308   4.650673   4.933572   3.597345
    14  C    6.698196   7.613290   8.603124   7.777932   7.320307
    15  C    7.260614   7.839172   8.785609   8.128429   7.223682
    16  C    8.838483   9.549253  10.563432   9.670423   9.083844
    17  C    8.397566   8.820861   9.742486   9.110508   8.093353
    18  C    9.803255  10.382032  11.383638  10.520707   9.803057
    19  C    7.515655   8.253625   9.246599   8.443220   7.790892
    20  C    9.602771  10.051235  11.008304  10.264156   9.356596
    21  H    2.069105   2.422289   3.455487   2.704067   2.141950
    22  H    2.374957   3.679672   4.129160   4.463846   3.808850
    23  H    4.215880   5.539646   6.265680   5.524217   6.049836
    24  H    2.576195   4.038557   4.680420   4.281370   4.557113
    25  H    7.445265   8.437464   9.430629   8.531977   8.241029
    26  H    3.205902   3.498855   3.894002   4.445279   2.900298
    27  H    4.043365   4.580089   5.299152   5.263364   3.942553
    28  H    9.184737   9.984029  11.013861  10.037241   9.624359
    29  H    6.199539   6.744099   7.671141   7.084502   6.111764
    30  H   10.915079  11.511266  12.517214  11.632686  10.939870
    31  H    8.554731   8.844201   9.700614   9.202018   8.018428
    32  H    5.243165   6.144683   6.672022   6.961429   5.723610
    33  H   10.977096  11.307111  12.187841  11.609269  10.495992
    34  N    1.335055   2.246857   3.116468   2.817308   2.233118
    35  N    4.507198   5.437907   6.334167   5.849634   5.098169
    36  N    3.860962   5.188453   6.018044   5.462803   5.323852
    37  O    5.965987   7.223162   8.110403   7.293214   7.372094
    38  O    5.203566   6.679982   7.087597   6.928279   7.305569
    39  O    4.555787   5.363466   5.802134   6.254353   4.941618
    40  O   10.765021  11.111720  12.043852  11.330494  10.346322
    41  C    5.973286   7.461555   7.758929   8.060468   7.835197
    42  H    3.976766   5.462781   5.884657   6.080019   5.758845
    43  H    6.802316   8.317592   8.665578   8.834901   8.717397
    44  H    5.885953   7.328081   7.487709   7.935546   7.809866
    45  H    6.372332   7.806215   8.079898   8.506602   8.059130
    46  N    4.825819   6.341305   6.782812   6.875833   6.681337
                    6          7          8          9         10
     6  O    0.000000
     7  C    3.848647   0.000000
     8  C    5.436479   2.184861   0.000000
     9  C    4.068882   3.456982   3.360574   0.000000
    10  C    2.742679   1.527774   3.663064   3.872162   0.000000
    11  C    5.950701   2.174880   1.503470   4.595889   3.639467
    12  C    3.646854   2.523762   2.422065   1.521100   3.159441
    13  C    3.761886   2.550751   4.693199   5.218686   1.531263
    14  C    7.303848   3.537117   2.512871   5.788664   4.955243
    15  C    7.988047   4.424189   4.524577   7.475087   5.361687
    16  C    9.546905   5.794860   4.924240   8.193901   7.069475
    17  C    9.166209   5.748174   5.930016   8.864179   6.539505
    18  C   10.560539   6.865311   6.239958   9.477973   8.008425
    19  C    8.205524   4.454945   3.870878   7.077031   5.689227
    20  C   10.385420   6.839170   6.654182   9.766671   7.774994
    21  H    3.183906   2.669635   4.284588   5.165365   2.188084
    22  H    2.137135   2.271596   4.143804   3.347145   1.140001
    23  H    4.311268   3.397820   2.742076   2.179349   4.126804
    24  H    2.557242   2.580439   3.237208   2.122365   2.662290
    25  H    7.992505   4.320098   2.740494   5.961907   5.816005
    26  H    3.549222   3.464227   5.643091   5.884778   2.157714
    27  H    4.607127   2.500763   4.429116   5.698971   2.107544
    28  H    9.856036   6.121536   4.852662   8.116531   7.514347
    29  H    6.942377   3.557912   4.123783   6.826236   4.329342
    30  H   11.657195   7.924652   7.152356  10.385774   9.104519
    31  H    9.323424   6.168762   6.691025   9.420218   6.721763
    32  H    5.310726   3.088561   4.668678   5.340830   2.904556
    33  H   11.733931   8.354020   8.449142  11.386855   9.082922
    34  N    2.244502   2.371735   4.207204   4.439211   1.455595
    35  N    5.065420   1.365466   2.398338   4.626666   2.475148
    36  N    4.133312   1.350735   1.321263   2.540175   2.569068
    37  O    6.258879   3.377872   1.238097   3.530079   4.798602
    38  O    4.656593   4.652489   4.339869   1.248309   4.997372
    39  O    4.588250   3.108259   5.010964   5.322745   2.425181
    40  O   11.569218   8.114944   8.020531  11.103847   8.956639
    41  C    5.244370   4.753533   4.967852   2.421967   4.888028
    42  H    3.454934   2.822920   3.688195   1.764482   2.779068
    43  H    6.129262   5.359830   5.135730   2.720986   5.724804
    44  H    4.985012   5.311274   5.718027   2.736960   5.194226
    45  H    5.658407   4.937240   5.351937   3.307694   4.992027
    46  N    4.301719   3.387478   3.655077   1.327844   3.670808
                   11         12         13         14         15
    11  C    0.000000
    12  C    3.648664   0.000000
    13  C    4.217604   4.633393   0.000000
    14  C    1.379951   4.877447   5.346119   0.000000
    15  C    3.026701   6.549510   5.058115   2.456034   0.000000
    16  C    3.750527   7.301796   7.115352   2.429505   2.390602
    17  C    4.435198   7.944302   6.012510   3.744646   1.410156
    18  C    4.960171   8.576421   7.834253   3.727419   2.789878
    19  C    2.523895   6.158719   5.734247   1.412545   1.397826
    20  C    5.226773   8.849358   7.354481   4.227857   2.427818
    21  H    4.141414   3.947472   2.856007   5.240903   5.487423
    22  H    4.422073   3.027882   2.204676   5.782064   6.372329
    23  H    4.107183   1.139947   5.617839   5.165958   7.053131
    24  H    4.199832   1.140023   4.190792   5.506324   6.868176
    25  H    2.186490   5.146609   6.357827   1.153078   3.418520
    26  H    5.226784   5.288972   1.140023   6.349516   5.921615
    27  H    3.625956   4.919159   1.153078   4.575449   3.989659
    28  H    3.963369   7.260519   7.760782   2.587024   3.395396
    29  H    2.662848   5.857144   3.981661   2.644312   1.140001
    30  H    5.952006   9.534037   8.936405   4.656853   3.903426
    31  H    5.189803   8.521616   5.954299   4.705006   2.253822
    32  H    4.052159   5.142700   2.132394   4.970254   4.661159
    33  H    6.978543  10.547930   8.374606   6.106341   4.012164
    34  N    4.275894   3.423493   2.438505   5.528244   5.935776
    35  N    1.456911   3.704278   2.792150   2.577248   3.064915
    36  N    2.243751   1.450731   3.834180   3.546415   5.105934
    37  O    2.485491   2.808635   5.903096   3.021697   5.347085
    38  O    5.693117   2.396923   6.377965   6.814434   8.638792
    39  O    4.518615   5.086240   1.417647   5.568172   5.246994
    40  O    6.582375  10.192493   8.399551   5.597451   3.693775
    41  C    5.869973   3.797826   5.773070   6.977560   8.364134
    42  H    4.433427   2.365266   3.846560   5.730922   6.900745
    43  H    6.152644   4.152148   6.668349   7.133166   8.734858
    44  H    6.671852   4.147461   6.115492   7.853555   9.197053
    45  H    6.015638   4.514243   5.604127   7.075116   8.217160
    46  N    4.596893   2.434175   4.745760   5.791452   7.224782
                   16         17         18         19         20
    16  C    0.000000
    17  C    2.773469   0.000000
    18  C    1.402511   2.409458   0.000000
    19  C    1.390776   2.441573   2.442378   0.000000
    20  C    2.401038   1.400374   1.377781   2.815611   0.000000
    21  H    7.127074   6.546520   7.982408   5.837943   7.725652
    22  H    7.991167   7.569528   8.982375   6.624644   8.792521
    23  H    7.525038   8.447296   8.845086   6.502673   9.243630
    24  H    7.899128   8.216500   9.099689   6.674571   9.232014
    25  H    2.535569   4.560982   3.936665   2.121918   4.752582
    26  H    8.056890   6.764204   8.708050   6.686323   8.137112
    27  H    6.136689   4.900567   6.777267   4.775869   6.250843
    28  H    1.140001   3.911194   2.239095   2.137362   3.455906
    29  H    3.380032   2.236466   3.903426   2.143115   3.463669
    30  H    2.238372   3.397816   1.140001   3.475500   2.132720
    31  H    3.911194   1.140001   3.415243   3.497447   2.165100
    32  H    6.553002   5.573231   7.238940   5.267675   6.812409
    33  H    4.342447   2.658469   3.151706   4.709920   2.020195
    34  N    7.591124   7.065509   8.513651   6.251397   8.279740
    35  N    4.601734   4.388201   5.578796   3.222764   5.485854
    36  N    5.966561   6.501867   7.199868   4.764621   7.420176
    37  O    5.224396   6.713743   6.612286   4.432229   7.243790
    38  O    9.201622  10.038127  10.524867   8.152993  10.891877
    39  O    7.251062   6.150019   7.939085   5.914760   7.456608
    40  O    3.642283   2.418549   2.357331   4.185524   1.370556
    41  C    9.206517   9.653886  10.391357   8.105062  10.584631
    42  H    8.060328   8.208273   9.207238   6.810885   9.265316
    43  H    9.306720  10.038275  10.536504   8.316035  10.858680
    44  H   10.140182  10.491321  11.327175   8.994485  11.478427
    45  H    9.176856   9.428901  10.275746   8.072077  10.381969
    46  N    8.116619   8.560936   9.326125   6.960485   9.514900
                   21         22         23         24         25
    21  H    0.000000
    22  H    3.009801   0.000000
    23  H    4.457422   4.071339   0.000000
    24  H    3.264974   2.419000   1.811718   0.000000
    25  H    6.118697   6.536224   5.252932   5.940178   0.000000
    26  H    2.905089   2.597948   6.224805   4.633393   7.377354
    27  H    2.833946   3.078870   5.805915   4.629609   5.663627
    28  H    7.577725   8.365847   7.343191   7.973949   2.167358
    29  H    4.432120   5.379907   6.443290   6.030818   3.770506
    30  H    9.107133  10.054807   9.758029  10.117230   4.660451
    31  H    6.718266   7.750743   9.108539   8.673416   5.607062
    32  H    4.681522   3.260726   6.206923   5.124200   5.886436
    33  H    9.115907  10.081691  11.046713  10.855091   6.675597
    34  N    1.060021   2.025013   4.108630   2.607285   6.367888
    35  N    3.193217   3.412944   4.433174   3.897168   3.575869
    36  N    3.435516   2.904039   2.201455   2.032492   3.994643
    37  O    5.337346   5.140983   2.720607   3.824678   2.743711
    38  O    6.114450   4.377075   2.547242   2.875373   6.853167
    39  O    4.201648   2.691511   6.170083   4.846612   6.522195
    40  O    8.852914   9.984026  10.599772  10.538806   6.084400
    41  C    6.763803   4.116171   4.586269   4.192696   7.178376
    42  H    4.633328   2.058531   3.442673   2.448512   6.186647
    43  H    7.501420   5.046217   4.744848   4.755037   7.160226
    44  H    6.989377   4.255419   4.878655   4.316057   8.092020
    45  H    7.041164   4.260694   5.415436   4.860425   7.352977
    46  N    5.423468   3.050976   3.349835   2.883512   6.068124
                   26         27         28         29         30
    26  H    0.000000
    27  H    1.941648   0.000000
    28  H    8.735200   6.858463   0.000000
    29  H    4.808691   2.889487   4.263660   0.000000
    30  H    9.824717   7.890026   2.667654   5.028842   0.000000
    31  H    6.577927   4.851897   5.049946   2.674418   4.282990
    32  H    3.092314   2.271840   7.196101   3.886010   8.232890
    33  H    9.050605   7.293314   5.343006   4.864050   3.335363
    34  N    2.495833   2.819330   8.007760   4.866683   9.632445
    35  N    3.803628   2.177855   5.082347   2.226551   6.656730
    36  N    4.683224   3.849339   6.039927   4.435328   8.184708
    37  O    6.840432   5.666601   4.876972   5.131912   7.397974
    38  O    6.957457   6.903346   9.020217   8.018743  11.395360
    39  O    2.198813   2.003739   7.902517   4.327153   8.977120
    40  O    9.106988   7.286688   4.592825   4.639381   2.535753
    41  C    6.456686   6.426510   9.213489   7.771439  11.238180
    42  H    4.516857   4.511066   8.216234   6.133624  10.174728
    43  H    7.419041   7.218888   9.189669   8.254014  11.311049
    44  H    6.635616   6.901500  10.162506   8.521638  12.207592
    45  H    6.313226   6.263752   9.274097   7.646464  11.108429
    46  N    5.487887   5.302663   8.149258   6.580002  10.228909
                   31         32         33         34         35
    31  H    0.000000
    32  H    5.578870   0.000000
    33  H    2.506292   7.698792   0.000000
    34  N    7.233760   4.253364   9.646739   0.000000
    35  N    4.848394   2.913499   6.991740   3.256512   0.000000
    36  N    7.092131   4.160207   9.099367   3.117380   2.305387
    37  O    7.582131   5.770675   9.116285   5.258165   3.607760
    38  O   10.628943   6.550234  12.558815   5.387270   5.830786
    39  O    6.070896   1.010049   8.330914   3.678652   3.216969
    40  O    2.631819   7.839016   1.010042   9.439741   6.754001
    41  C   10.098218   5.206544  11.959577   5.887384   5.714173
    42  H    8.587377   3.843439  10.674959   3.755902   3.972348
    43  H   10.575297   5.984015  12.295037   6.690077   6.240504
    44  H   10.886666   5.813902  12.846221   6.037325   6.404231
    45  H    9.798719   4.718672  11.614145   6.164197   5.737848
    46  N    9.036793   4.464682  10.985468   4.614186   4.435378
                   36         37         38         39         40
    36  N    0.000000
    37  O    2.272295   0.000000
    38  O    3.645558   4.232534   0.000000
    39  O    4.267651   6.158719   6.497828   0.000000
    40  O    8.758111   8.611159  12.241694   8.467031   0.000000
    41  C    4.287675   5.193375   2.770650   5.287771  11.847585
    42  H    2.638194   4.329646   2.822243   3.727787  10.534509
    43  H    4.684954   5.107784   2.778029   6.182139  12.137420
    44  H    4.876145   5.959850   2.775209   5.723387  12.741659
    45  H    4.719853   5.704781   3.830810   4.870677  11.588524
    46  N    2.856561   4.028652   2.265108   4.520155  10.809711
                   41         42         43         44         45
    41  C    0.000000
    42  H    2.140795   0.000000
    43  H    1.089955   2.998405   0.000000
    44  H    1.090048   2.508938   1.779627   0.000000
    45  H    1.090006   2.508858   1.779603   1.779589   0.000000
    46  N    1.448967   1.009981   2.083771   2.083857   2.083781
                   46
    46  N    0.000000
 Stoichiometry    C17H20N4O5
 Framework group  C1[X(C17H20N4O5)]
 Deg. of freedom   132
 Full point group                 C1      NOp   1
 Largest Abelian subgroup         C1      NOp   1
 Largest concise Abelian subgroup C1      NOp   1
                         Standard orientation:                         
 ---------------------------------------------------------------------
 Center     Atomic      Atomic             Coordinates (Angstroms)
 Number     Number       Type             X           Y           Z
 ---------------------------------------------------------------------
      1          6    20001002        3.296385    2.346341   -1.138538
      2          6    20001001        3.267716    3.768461   -1.702029
      3          1    20001034        4.148224    4.331218   -1.392031
      4          1    20001034        3.236903    3.711436   -2.790092
      5          1    20001034        2.369781    4.268739   -1.339443
      6          8    20001024        4.232662    1.972709   -0.435487
      7          6    20001012        0.819598    0.247255   -0.004347
      8          6    20001002        0.220615   -1.671085   -0.861556
      9          6    20001002        3.450321   -1.995477    0.008632
     10          6    20001001        1.688144    1.426601    0.430238
     11          6    20001005       -0.987236   -0.884476   -0.434046
     12          6    20001001        2.599764   -1.238868   -1.000249
     13          6    20001001        0.965083    2.382842    1.382893
     14          6    90000001       -2.264243   -1.356977   -0.658234
     15          6    20001003       -3.590323    0.505094    0.239712
     16          6    20001003       -4.693153   -1.405580   -0.681195
     17          6    20001003       -4.842495    1.095319    0.508484
     18          6    20001003       -5.947141   -0.837294   -0.413608
     19          6    20001003       -3.506725   -0.752630   -0.364489
     20          6    20001003       -6.015303    0.404697    0.178924
     21          1    20001029        1.254386    2.443953   -1.457767
     22          1    20001035        2.719521    1.163713    0.838591
     23          1    20001035        2.704196   -1.733144   -2.022141
     24          1    20001035        3.105328   -0.222552   -1.105884
     25          1    20001033       -2.404376   -2.441183   -1.024907
     26          1    20001035        1.470647    3.399158    1.277257
     27          1    20001035       -0.126064    2.326112    1.014423
     28          1    20001033       -4.563254   -2.405491   -1.213083
     29          1    20001033       -2.624593    1.110594    0.221328
     30          1    20001033       -6.912871   -1.442793   -0.395225
     31          1    20001033       -4.972394    2.095231    1.040372
     32          1    20001031        0.192435    1.096688    2.898124
     33          1    20001031       -7.346732    1.359476    1.360822
     34          7    20001014        2.023427    2.129779   -0.799348
     35          7    20001016       -0.529650    0.357936    0.173915
     36          7    20001018        1.250054   -0.883836   -0.604202
     37          8    20001024        0.295305   -2.805451   -1.351984
     38          8    20001024        4.415117   -2.680084   -0.389812
     39          8    20001022        0.866626    1.816034    2.678561
     40          8    20001022       -7.254207    0.921525    0.455380
     41          6    20001001        3.940645   -2.472420    2.331999
     42          1    20001029        3.104697   -0.811760    1.270677
     43          1    20001035        3.893430   -3.552759    2.195478
     44          1    20001035        4.978584   -2.144462    2.274282
     45          1    20001035        3.531749   -2.211885    3.308235
     46          7    20001014        3.168520   -1.819448    1.294234
 ---------------------------------------------------------------------
 Rotational constants (GHZ):      0.3079423      0.1031932      0.0890590
 Standard basis: Dummy (5D, 7F)
 There are    46 symmetry adapted cartesian basis functions of A   symmetry.
 There are    46 symmetry adapted basis functions of A   symmetry.
    46 basis functions,    46 primitive gaussians,    46 cartesian basis functions
    34 alpha electrons       34 beta electrons
       nuclear repulsion energy       288.1222244640 Hartrees.
 NAtoms=   46 NActive=   46 NUniq=   46 SFac= 1.00D+00 NAtFMM=   60 NAOKFM=F Big=F
 Integral buffers will be    131072 words long.
 Raffenetti 1 integral format.
 Two-electron integral symmetry is turned on.
 AMBER calculation of energy.
 Energy=     13.8029991     NIter=   0.
 Dipole moment=     -33.231450       0.421817       6.624480
 1\1\GINC-TRISTANS-MBP\SP\RAMBER\ZDO\C17H20N4O5\TRISTANMACKENZIE\27-Apr
 -2019\0\\#N AMBER=softfirst geom=connectivity\\Title\\0,1\C,0,11.642,6
 8.057,-12.147\C,0,13.1653,67.915,-12.1597\H,0,13.4732,67.0413,-12.7341
 \H,0,13.5951,68.8126,-12.6043\H,0,13.5145,67.8164,-11.1319\O,0,10.9347
 ,67.243,-12.7366\C,0,9.431,69.147,-9.749\C,0,8.131,70.9,-9.852\C,0,7.2
 39,68.914,-12.412\C,0,10.237,67.92,-10.172\C,0,8.729,70.767,-8.479\C,0
 ,8.418,69.77,-11.975\C,0,10.723,67.085,-8.984\C,0,8.491,71.711,-7.501\
 C,0,9.853,70.805,-5.669\C,0,8.622,72.829,-5.348\C,0,10.348,70.9,-4.352
 \C,0,9.098,72.935,-4.033\C,0,8.987,71.776,-6.18\C,0,9.954,71.973,-3.54
 3\H,0,12.0081,69.1755,-10.4452\H,0,9.7521,67.2499,-10.9565\H,0,8.418,7
 0.7397,-12.5743\H,0,9.3403,69.2,-12.3273\H,0,7.691,72.5205,-7.6862\H,0
 ,11.6453,66.515,-9.3363\H,0,10.9082,67.885,-8.1745\H,0,7.9519,73.6135,
 -5.8329\H,0,10.3379,70.1349,-6.4535\H,0,8.6131,73.6051,-3.2485\H,0,11.
 0181,70.1155,-3.8671\H,0,8.9569,66.7736,-7.8303\H,0,10.379,71.2278,-1.
 714\N,0,11.385,68.446,-10.896\N,0,9.543,69.559,-8.452\N,0,8.653,69.907
 ,-10.55\O,0,7.326,71.733,-10.289\O,0,6.736,69.089,-13.541\O,0,9.652,66
 .344,-8.424\O,0,10.379,72.087,-2.245\C,0,5.7564,67.0613,-11.9269\H,0,7
 .767,67.5708,-11.3969\H,0,4.8523,67.646,-12.0964\H,0,6.0052,66.5073,-1
 2.8321\H,0,5.5878,66.3616,-11.1083\N,0,6.85,67.949,-11.587\\Version=EM
 64M-G09RevD.01\HF=13.8029991\RMSD=0.000e+00\Dipole=-0.2877378,9.354231
 9,32.5700243\PG=C01 [X(C17H20N4O5)]\\@


 A SCIENTIST IS SOMEONE WHOSE CURIOSITY SURVIVES
 EDUCATION'S ASSAULTS ON IT.
                          - SIR HERMANN BONDI
 Job cpu time:       0 days  0 hours  0 minutes  0.3 seconds.
 File lengths (MBytes):  RWF=      5 Int=      0 D2E=      0 Chk=      1 Scr=      1
 Normal termination of Gaussian 09 at Sat Apr 27 12:04:46 2019.
